<?xml version="1.0" encoding="UTF-8"?>

<!-- generated on 2025-08-03 16:53:16 by Eclipse SUMO sumo Version 1.20.0
<configuration xmlns:xsi="http://www.w3.org/2001/XMLSchema-instance" xsi:noNamespaceSchemaLocation="http://sumo.dlr.de/xsd/sumoConfiguration.xsd">

    <input>
        <net-file value="ingolstadt.net.xml"/>
        <route-files value="routes/ped.rou.xml,routes/BusRoutes.flow.xml,routes/InTAS_001.rou.xml,routes/InTAS_002.rou.xml,routes/InTAS_003.rou.xml,routes/InTAS_004.rou.xml,routes/InTAS_005.rou.xml,routes/InTAS_006.rou.xml,routes/InTAS_007.rou.xml,routes/InTAS_008.rou.xml,routes/InTAS_009.rou.xml,routes/InTAS_010.rou.xml,routes/InTAS_011.rou.xml,routes/InTAS_012.rou.xml,routes/InTAS_013.rou.xml,routes/InTAS_014.rou.xml,routes/InTAS_015.rou.xml,routes/InTAS_016.rou.xml,routes/InTAS_017.rou.xml,routes/InTAS_018.rou.xml,routes/InTAS_019.rou.xml,routes/InTAS_020.rou.xml,routes/InTAS_021.rou.xml,routes/InTAS_022.rou.xml"/>
        <additional-files value="mosaic_types.add.xml,BusStations.add.xml,InTAS_E1.add.xml,InTAS.poly.xml"/>
    </input>

    <output>
        <summary-output value="InTAS.simulation.summary.xml"/>
        <tripinfo-output value="InTAS.simulation.tripinfo.xml"/>
        <statistic-output value="InTAS.simulation.statistic.xml"/>
    </output>

    <time>
        <begin value="0"/>
        <end value="86400"/>
        <step-length value="1.00"/>
    </time>

    <processing>
        <threads value="1"/>
        <route-steps value="200"/>
        <ignore-junction-blocker value="15"/>
        <time-to-teleport value="0"/>
        <time-to-teleport.highways value="300"/>
        <max-depart-delay value="300"/>
        <default.carfollowmodel value="Krauss"/>
        <parking.maneuver value="true"/>
        <pedestrian.model value="striping"/>
        <pedestrian.striping.stripe-width value="0.55"/>
        <pedestrian.striping.jamtime value="30"/>
    </processing>

    <routing>
        <routing-algorithm value="dijkstra"/>
        <persontrip.transfer.car-walk value="allJunctions"/>
        <device.rerouting.probability value="0.82"/>
        <device.rerouting.explicit value="default_001,default_002,default_003,default_004,default_005,default_006,default_007,default_008,default_009,default_010,default_011,default_012,default_013,default_014,default_015,default_016,default_017,default_018,default_019,default_020,default_021,default_022,random_001,random_002,random_003,random_004,random_005,random_006,random_007,random_008,random_009,random_010,random_011,random_012,random_013,random_014,random_015,random_016,random_017,random_018,random_019,random_020,random_021,random_022"/>
        <device.rerouting.period value="300"/>
        <device.rerouting.threads value="1"/>
        <device.rerouting.synchronize value="true"/>
    </routing>

    <report>
        <verbose value="true"/>
        <no-warnings value="true"/>
        <log value="InTAS.simulation.log"/>
    </report>

    <traci_server>
        <remote-port value="59835"/>
    </traci_server>

    <random_number>
        <seed value="100000"/>
    </random_number>

</configuration>
-->

<tripinfos xmlns:xsi="http://www.w3.org/2001/XMLSchema-instance" xsi:noNamespaceSchemaLocation="http://sumo.dlr.de/xsd/tripinfo_file.xsd">
    <tripinfo id="h21950c1:1" depart="0.00" departLane="207091132#3_1" departPos="35.98" departSpeed="0.00" departDelay="0.00" arrival="1.00" arrivalLane="207091132#3_1" arrivalPos="35.98" arrivalSpeed="0.00" duration="1.00" routeLength="0.00" waitingTime="1.00" waitingCount="1" stopTime="0.00" timeLoss="1.00" rerouteNo="0" devices="tripinfo_h21950c1:1 routing_h21950c1:1" vType="default_001" speedFactor="1.06" vaporized=""/>
    <tripinfo id="randUni5650:1" depart="16.00" departLane="90587321#0_1" departPos="5.96" departSpeed="0.00" departDelay="0.00" arrival="94.00" arrivalLane="64464420_1" arrivalPos="33.01" arrivalSpeed="0.16" duration="78.00" routeLength="935.33" waitingTime="0.00" waitingCount="0" stopTime="0.00" timeLoss="9.90" rerouteNo="1" devices="tripinfo_randUni5650:1 routing_randUni5650:1" vType="random_001" speedFactor="1.01" vaporized=""/>
    <tripinfo id="carIn19028:1" depart="3.00" departLane="10881203_0" departPos="0.00" departSpeed="0.00" departDelay="3.00" arrival="100.00" arrivalLane="gneE119_1" arrivalPos="25.00" arrivalSpeed="0.21" duration="97.00" routeLength="3234.36" waitingTime="0.00" waitingCount="0" stopTime="0.00" timeLoss="20.48" rerouteNo="0" devices="tripinfo_carIn19028:1 routing_carIn19028:1" vType="default_001" speedFactor="0.82" vaporized=""/>
    <tripinfo id="carIn46650:1" depart="24.00" departLane="10881203_0" departPos="0.00" departSpeed="0.00" departDelay="24.00" arrival="115.00" arrivalLane="gneE119_1" arrivalPos="25.00" arrivalSpeed="0.15" duration="91.00" routeLength="3234.36" waitingTime="0.00" waitingCount="0" stopTime="0.00" timeLoss="21.38" rerouteNo="0" devices="tripinfo_carIn46650:1" vType="default_001" speedFactor="1.10" vaporized=""/>
    <tripinfo id="carIn21792:1" depart="6.00" departLane="10881203_0" departPos="0.00" departSpeed="0.00" departDelay="6.00" arrival="145.00" arrivalLane="306793670#1_0" arrivalPos="0.00" arrivalSpeed="0.00" duration="139.00" routeLength="5489.86" waitingTime="4.00" waitingCount="1" stopTime="0.00" timeLoss="26.16" rerouteNo="0" devices="tripinfo_carIn21792:1 routing_carIn21792:1" vType="default_001" speedFactor="0.99" vaporized=""/>
    <tripinfo id="carIn5600:1" depart="0.00" departLane="221257620_0" departPos="0.00" departSpeed="0.00" departDelay="0.00" arrival="150.00" arrivalLane="gneE119_1" arrivalPos="25.00" arrivalSpeed="0.12" duration="150.00" routeLength="5403.15" waitingTime="0.00" waitingCount="0" stopTime="0.00" timeLoss="20.70" rerouteNo="0" devices="tripinfo_carIn5600:1 routing_carIn5600:1" vType="default_001" speedFactor="1.04" vaporized=""/>
    <tripinfo id="carIn18404:1" depart="6.00" departLane="221257620_0" departPos="0.00" departSpeed="0.00" departDelay="6.00" arrival="156.00" arrivalLane="221257625.1575_0" arrivalPos="0.00" arrivalSpeed="0.00" duration="150.00" routeLength="6800.92" waitingTime="5.00" waitingCount="1" stopTime="0.00" timeLoss="27.58" rerouteNo="0" devices="tripinfo_carIn18404:1" vType="default_001" speedFactor="0.85" vaporized=""/>
    <tripinfo id="carIn43937:1" depart="12.00" departLane="221257620_0" departPos="0.00" departSpeed="0.00" departDelay="12.00" arrival="161.00" arrivalLane="gneE119_1" arrivalPos="25.00" arrivalSpeed="0.13" duration="149.00" routeLength="5403.15" waitingTime="0.00" waitingCount="0" stopTime="0.00" timeLoss="26.40" rerouteNo="0" devices="tripinfo_carIn43937:1 routing_carIn43937:1" vType="default_001" speedFactor="1.24" vaporized=""/>
    <tripinfo id="randUni22983:1" depart="52.00" departLane="-28269079#2_1" departPos="21.10" departSpeed="0.00" departDelay="0.00" arrival="162.00" arrivalLane="-26334886_1" arrivalPos="48.59" arrivalSpeed="0.14" duration="110.00" routeLength="769.44" waitingTime="0.00" waitingCount="0" stopTime="0.00" timeLoss="16.23" rerouteNo="0" devices="tripinfo_randUni22983:1 routing_randUni22983:1" vType="random_001@randUni22983:1" speedFactor="0.90" vaporized=""/>
    <tripinfo id="carIn64237:1" depart="9.00" departLane="380271165#0_1" departPos="0.00" departSpeed="0.00" departDelay="9.00" arrival="168.00" arrivalLane="-137463475#1_1" arrivalPos="22.35" arrivalSpeed="1.96" duration="159.00" routeLength="3041.33" waitingTime="0.00" waitingCount="0" stopTime="0.00" timeLoss="-41.11" rerouteNo="1" devices="tripinfo_carIn64237:1 routing_carIn64237:1" vType="default_001@carIn64237:1" speedFactor="1.10" vaporized=""/>
    <tripinfo id="carIn30046:1" depart="9.00" departLane="221257620_0" departPos="0.00" departSpeed="0.00" departDelay="9.00" arrival="170.00" arrivalLane="39970992#0_0" arrivalPos="0.00" arrivalSpeed="0.00" duration="161.00" routeLength="5377.19" waitingTime="3.00" waitingCount="1" stopTime="0.00" timeLoss="24.89" rerouteNo="0" devices="tripinfo_carIn30046:1" vType="default_001" speedFactor="0.89" vaporized=""/>
    <tripinfo id="h16542c1:1" depart="0.00" departLane="-27914968_0" departPos="37.27" departSpeed="0.00" departDelay="0.00" arrival="175.00" arrivalLane="-325180705#3_1" arrivalPos="200.00" arrivalSpeed="0.13" duration="175.00" routeLength="7919.99" waitingTime="0.00" waitingCount="0" stopTime="0.00" timeLoss="-373.41" rerouteNo="1" devices="tripinfo_h16542c1:1 routing_h16542c1:1" vType="default_001@h16542c1:1" speedFactor="1.10" vaporized=""/>
    <tripinfo id="carIn73462:1" depart="3.00" departLane="-107431496#4_1" departPos="0.00" departSpeed="0.00" departDelay="3.00" arrival="180.00" arrivalLane="gneE119_1" arrivalPos="25.00" arrivalSpeed="0.17" duration="177.00" routeLength="7508.93" waitingTime="0.00" waitingCount="0" stopTime="0.00" timeLoss="-320.22" rerouteNo="0" devices="tripinfo_carIn73462:1" vType="default_001@carIn73462:1" speedFactor="1.10" vaporized=""/>
    <tripinfo id="carIn80851:1" depart="50.00" departLane="10881203_0" departPos="0.00" departSpeed="0.00" departDelay="50.00" arrival="188.00" arrivalLane="306793670#1_0" arrivalPos="0.00" arrivalSpeed="0.00" duration="138.00" routeLength="5489.86" waitingTime="2.00" waitingCount="1" stopTime="0.00" timeLoss="25.57" rerouteNo="0" devices="tripinfo_carIn80851:1 routing_carIn80851:1" vType="default_001" speedFactor="1.02" vaporized=""/>
    <tripinfo id="h5311c1:1" depart="0.00" departLane="28319300#0_1" departPos="186.34" departSpeed="0.00" departDelay="0.00" arrival="198.00" arrivalLane="221257625.1575_0" arrivalPos="0.00" arrivalSpeed="0.00" duration="198.00" routeLength="9491.48" waitingTime="4.00" waitingCount="1" stopTime="0.00" timeLoss="-234.49" rerouteNo="1" devices="tripinfo_h5311c1:1 routing_h5311c1:1" vType="default_001@h5311c1:1" speedFactor="1.10" vaporized=""/>
    <tripinfo id="randUni30047:1" depart="40.00" departLane="-320733909#2_1" departPos="53.24" departSpeed="0.00" departDelay="0.00" arrival="201.00" arrivalLane="24499966#1_1" arrivalPos="69.28" arrivalSpeed="0.27" duration="161.00" routeLength="7525.10" waitingTime="0.00" waitingCount="0" stopTime="0.00" timeLoss="-347.33" rerouteNo="0" devices="tripinfo_randUni30047:1" vType="random_001@randUni30047:1" speedFactor="1.10" vaporized=""/>
    <tripinfo id="carIn96498:1" depart="66.00" departLane="10881203_0" departPos="0.00" departSpeed="0.00" departDelay="66.00" arrival="209.00" arrivalLane="266507534_0" arrivalPos="728.45" arrivalSpeed="0.08" duration="143.00" routeLength="6524.66" waitingTime="1.00" waitingCount="1" stopTime="0.00" timeLoss="25.56" rerouteNo="0" devices="tripinfo_carIn96498:1 routing_carIn96498:1" vType="default_001" speedFactor="1.01" vaporized=""/>
    <tripinfo id="h22564c1:1" depart="0.00" departLane="-23050175#0_1" departPos="55.58" departSpeed="0.00" departDelay="0.00" arrival="210.00" arrivalLane="220012723_1" arrivalPos="45.25" arrivalSpeed="0.16" duration="210.00" routeLength="8153.21" waitingTime="0.00" waitingCount="0" stopTime="0.00" timeLoss="-330.23" rerouteNo="1" devices="tripinfo_h22564c1:1 routing_h22564c1:1" vType="default_001@h22564c1:1" speedFactor="1.10" vaporized=""/>
    <tripinfo id="carIn70444:1" depart="37.00" departLane="10881203_0" departPos="0.00" departSpeed="0.00" departDelay="37.00" arrival="223.00" arrivalLane="39704922_0" arrivalPos="0.00" arrivalSpeed="0.00" duration="186.00" routeLength="6213.26" waitingTime="4.00" waitingCount="1" stopTime="0.00" timeLoss="34.89" rerouteNo="0" devices="tripinfo_carIn70444:1 routing_carIn70444:1" vType="default_001" speedFactor="0.87" vaporized=""/>
    <tripinfo id="carIn76422:1" depart="40.00" departLane="10881203_0" departPos="0.00" departSpeed="0.00" departDelay="40.00" arrival="226.00" arrivalLane="39704922_1" arrivalPos="0.00" arrivalSpeed="0.00" duration="186.00" routeLength="6213.26" waitingTime="5.00" waitingCount="1" stopTime="0.00" timeLoss="36.75" rerouteNo="0" devices="tripinfo_carIn76422:1" vType="default_001" speedFactor="0.91" vaporized=""/>
    <tripinfo id="carIn116271:1" depart="44.00" departLane="32976551_0" departPos="0.00" departSpeed="0.00" departDelay="44.00" arrival="230.00" arrivalLane="39970992#0_0" arrivalPos="0.00" arrivalSpeed="0.00" duration="186.00" routeLength="4511.54" waitingTime="4.00" waitingCount="1" stopTime="0.00" timeLoss="31.53" rerouteNo="0" devices="tripinfo_carIn116271:1 routing_carIn116271:1" vType="default_001" speedFactor="1.05" vaporized=""/>
    <tripinfo id="carIn131168:1" depart="30.00" departLane="320733903#0_1" departPos="0.00" departSpeed="0.00" departDelay="30.00" arrival="236.00" arrivalLane="320733908_1" arrivalPos="351.35" arrivalSpeed="0.53" duration="206.00" routeLength="2628.61" waitingTime="0.00" waitingCount="0" stopTime="0.00" timeLoss="33.44" rerouteNo="0" devices="tripinfo_carIn131168:1 routing_carIn131168:1" vType="default_001" speedFactor="0.98" vaporized=""/>
    <tripinfo id="randUni2403:1" depart="108.00" departLane="23623640_1" departPos="14.84" departSpeed="0.00" departDelay="0.00" arrival="244.00" arrivalLane="37256210#0_1" arrivalPos="20.31" arrivalSpeed="0.13" duration="136.00" routeLength="1610.90" waitingTime="0.00" waitingCount="0" stopTime="0.00" timeLoss="21.53" rerouteNo="1" devices="tripinfo_randUni2403:1 routing_randUni2403:1" vType="random_001" speedFactor="1.17" vaporized=""/>
    <tripinfo id="carIn9660:1" depart="0.00" departLane="72562650_0" departPos="0.00" departSpeed="0.00" departDelay="0.00" arrival="249.00" arrivalLane="54606422#3_1" arrivalPos="0.00" arrivalSpeed="4.89" duration="249.00" routeLength="10249.04" waitingTime="0.00" waitingCount="0" stopTime="0.00" timeLoss="-389.16" rerouteNo="1" devices="tripinfo_carIn9660:1 routing_carIn9660:1" vType="default_001@carIn9660:1" speedFactor="1.10" vaporized=""/>
    <tripinfo id="h20338c2:1" depart="0.00" departLane="-26814848#1_1" departPos="81.26" departSpeed="0.00" departDelay="0.00" arrival="254.00" arrivalLane="54606422#3_1" arrivalPos="0.00" arrivalSpeed="0.00" duration="254.00" routeLength="2994.69" waitingTime="15.00" waitingCount="2" stopTime="0.00" timeLoss="50.66" rerouteNo="0" devices="tripinfo_h20338c2:1 routing_h20338c2:1" vType="default_001" speedFactor="1.01" vaporized=""/>
    <tripinfo id="randUni29919:1" depart="51.00" departLane="-23049990#0_1" departPos="98.45" departSpeed="0.00" departDelay="0.00" arrival="259.00" arrivalLane="26372657#3_1" arrivalPos="91.51" arrivalSpeed="0.11" duration="208.00" routeLength="8663.52" waitingTime="0.00" waitingCount="0" stopTime="0.00" timeLoss="-538.79" rerouteNo="1" devices="tripinfo_randUni29919:1 routing_randUni29919:1" vType="random_001@randUni29919:1" speedFactor="1.10" vaporized=""/>
    <tripinfo id="carIn59428:1" depart="26.00" departLane="32976551_0" departPos="0.00" departSpeed="0.00" departDelay="26.00" arrival="260.00" arrivalLane="139516077#0_0" arrivalPos="0.00" arrivalSpeed="0.00" duration="234.00" routeLength="9761.31" waitingTime="6.00" waitingCount="1" stopTime="0.00" timeLoss="-310.65" rerouteNo="0" devices="tripinfo_carIn59428:1" vType="default_001@carIn59428:1" speedFactor="1.10" vaporized=""/>
    <tripinfo id="carIn123404:1" depart="6.00" departLane="-146973236#6_1" departPos="0.00" departSpeed="0.00" departDelay="6.00" arrival="267.00" arrivalLane="-25597196#6_1" arrivalPos="74.95" arrivalSpeed="0.57" duration="261.00" routeLength="3272.50" waitingTime="0.00" waitingCount="0" stopTime="0.00" timeLoss="22.06" rerouteNo="1" devices="tripinfo_carIn123404:1 routing_carIn123404:1" vType="default_001" speedFactor="1.04" vaporized=""/>
    <tripinfo id="h8487c2:1" depart="0.00" departLane="176550249#4_1" departPos="238.95" departSpeed="0.00" departDelay="0.00" arrival="271.00" arrivalLane="-325180705#3_1" arrivalPos="200.00" arrivalSpeed="0.09" duration="271.00" routeLength="3704.50" waitingTime="1.00" waitingCount="1" stopTime="0.00" timeLoss="20.87" rerouteNo="1" devices="tripinfo_h8487c2:1 routing_h8487c2:1" vType="default_001" speedFactor="1.07" vaporized=""/>
    <tripinfo id="h10148c2:1" depart="0.00" departLane="-25797433#2_1" departPos="25.29" departSpeed="0.00" departDelay="0.00" arrival="275.00" arrivalLane="221257625.1575_0" arrivalPos="0.00" arrivalSpeed="0.00" duration="275.00" routeLength="6356.60" waitingTime="6.00" waitingCount="1" stopTime="0.00" timeLoss="34.88" rerouteNo="1" devices="tripinfo_h10148c2:1 routing_h10148c2:1" vType="default_001" speedFactor="0.97" vaporized=""/>
    <tripinfo id="carIn20:1" depart="0.00" departLane="-233673422#10_1" departPos="0.00" departSpeed="0.00" departDelay="0.00" arrival="277.00" arrivalLane="-320733910#1_1" arrivalPos="226.04" arrivalSpeed="0.55" duration="277.00" routeLength="9058.20" waitingTime="0.00" waitingCount="0" stopTime="0.00" timeLoss="-358.82" rerouteNo="0" devices="tripinfo_carIn20:1" vType="default_001@carIn20:1" speedFactor="1.10" vaporized=""/>
    <tripinfo id="randUni10146:1" depart="119.00" departLane="115881041#0_1" departPos="29.58" departSpeed="0.00" departDelay="0.00" arrival="278.00" arrivalLane="20266196#1_1" arrivalPos="11.42" arrivalSpeed="0.19" duration="159.00" routeLength="1962.05" waitingTime="0.00" waitingCount="0" stopTime="0.00" timeLoss="20.63" rerouteNo="0" devices="tripinfo_randUni10146:1" vType="random_001" speedFactor="1.12" vaporized=""/>
    <tripinfo id="carIn105357:1" depart="195.00" departLane="10881203_0" departPos="0.00" departSpeed="0.00" departDelay="0.00" arrival="284.00" arrivalLane="gneE119_1" arrivalPos="25.00" arrivalSpeed="0.24" duration="89.00" routeLength="3234.36" waitingTime="0.00" waitingCount="0" stopTime="0.00" timeLoss="18.78" rerouteNo="0" devices="tripinfo_carIn105357:1 routing_carIn105357:1" vType="default_001" speedFactor="1.07" vaporized=""/>
    <tripinfo id="carIn41491:1" depart="18.00" departLane="32976551_0" departPos="0.00" departSpeed="0.00" departDelay="18.00" arrival="288.00" arrivalLane="233673422#9_1" arrivalPos="230.00" arrivalSpeed="0.07" duration="270.00" routeLength="9821.95" waitingTime="1.00" waitingCount="1" stopTime="0.00" timeLoss="-209.90" rerouteNo="0" devices="tripinfo_carIn41491:1" vType="default_001@carIn41491:1" speedFactor="1.10" vaporized=""/>
    <tripinfo id="randUni25050:1" depart="117.00" departLane="-29238188#0_1" departPos="4.42" departSpeed="0.00" departDelay="0.00" arrival="288.00" arrivalLane="-24983010#0_1" arrivalPos="27.57" arrivalSpeed="0.10" duration="171.00" routeLength="1909.17" waitingTime="0.00" waitingCount="0" stopTime="0.00" timeLoss="22.12" rerouteNo="1" devices="tripinfo_randUni25050:1 routing_randUni25050:1" vType="random_001" speedFactor="0.91" vaporized=""/>
    <tripinfo id="carIn92214:1" depart="22.00" departLane="-139516077#0_0" departPos="0.00" departSpeed="0.00" departDelay="22.00" arrival="293.00" arrivalLane="220012723_1" arrivalPos="48.96" arrivalSpeed="4.10" duration="271.00" routeLength="4056.92" waitingTime="18.00" waitingCount="1" stopTime="0.00" timeLoss="69.88" rerouteNo="0" devices="tripinfo_carIn92214:1" vType="default_001" speedFactor="1.10" vaporized=""/>
    <tripinfo id="carIn50777:1" depart="9.00" departLane="23128564#0_1" departPos="0.00" departSpeed="0.00" departDelay="9.00" arrival="297.00" arrivalLane="306793670#1_0" arrivalPos="0.00" arrivalSpeed="0.00" duration="288.00" routeLength="3634.12" waitingTime="3.00" waitingCount="1" stopTime="0.00" timeLoss="40.96" rerouteNo="0" devices="tripinfo_carIn50777:1 routing_carIn50777:1" vType="default_001" speedFactor="1.01" vaporized=""/>
    <tripinfo id="carIn111091:1" depart="27.00" departLane="320733903#0_1" departPos="0.00" departSpeed="0.00" departDelay="27.00" arrival="299.00" arrivalLane="-201894096#3_1" arrivalPos="165.40" arrivalSpeed="0.32" duration="272.00" routeLength="3761.89" waitingTime="0.00" waitingCount="0" stopTime="0.00" timeLoss="58.81" rerouteNo="0" devices="tripinfo_carIn111091:1 routing_carIn111091:1" vType="default_001" speedFactor="1.02" vaporized=""/>
    <tripinfo id="carIn130062:1" depart="18.00" departLane="23128564#0_1" departPos="0.00" departSpeed="0.00" departDelay="18.00" arrival="303.00" arrivalLane="306793670#1_0" arrivalPos="0.00" arrivalSpeed="0.00" duration="285.00" routeLength="3634.12" waitingTime="4.00" waitingCount="1" stopTime="0.00" timeLoss="41.27" rerouteNo="0" devices="tripinfo_carIn130062:1" vType="default_001" speedFactor="1.03" vaporized=""/>
    <tripinfo id="carIn12901:1" depart="18.00" departLane="-233673422#10_1" departPos="0.00" departSpeed="0.00" departDelay="18.00" arrival="308.00" arrivalLane="39704922_0" arrivalPos="0.00" arrivalSpeed="0.00" duration="290.00" routeLength="9552.13" waitingTime="18.00" waitingCount="2" stopTime="0.00" timeLoss="-195.13" rerouteNo="1" devices="tripinfo_carIn12901:1 routing_carIn12901:1" vType="default_001@carIn12901:1" speedFactor="1.10" vaporized=""/>
    <tripinfo id="randUni22943:1" depart="246.00" departLane="168245119#0_1" departPos="89.03" departSpeed="0.00" departDelay="0.00" arrival="318.00" arrivalLane="-201953160#4_1" arrivalPos="95.89" arrivalSpeed="0.20" duration="72.00" routeLength="862.73" waitingTime="0.00" waitingCount="0" stopTime="0.00" timeLoss="10.32" rerouteNo="0" devices="tripinfo_randUni22943:1 routing_randUni22943:1" vType="random_001" speedFactor="1.07" vaporized=""/>
    <tripinfo id="h15897c1:1" depart="0.00" departLane="-150746347#2_1" departPos="262.44" departSpeed="0.00" departDelay="0.00" arrival="319.00" arrivalLane="gneE178_1" arrivalPos="0.00" arrivalSpeed="0.00" duration="319.00" routeLength="4258.65" waitingTime="5.00" waitingCount="1" stopTime="0.00" timeLoss="29.47" rerouteNo="0" devices="tripinfo_h15897c1:1" vType="default_001" speedFactor="1.04" vaporized=""/>
    <tripinfo id="carIn65594:1" depart="54.00" departLane="-233673422#10_1" departPos="0.00" departSpeed="0.00" departDelay="54.00" arrival="319.00" arrivalLane="54606422#3_1" arrivalPos="0.00" arrivalSpeed="0.00" duration="265.00" routeLength="2835.06" waitingTime="4.00" waitingCount="1" stopTime="0.00" timeLoss="32.19" rerouteNo="0" devices="tripinfo_carIn65594:1 routing_carIn65594:1" vType="default_001" speedFactor="1.07" vaporized=""/>
    <tripinfo id="carIn93435:1" depart="28.00" departLane="-139516077#0_0" departPos="0.00" departSpeed="0.00" departDelay="28.00" arrival="324.00" arrivalLane="-320733910#1_1" arrivalPos="59.89" arrivalSpeed="0.09" duration="296.00" routeLength="4174.53" waitingTime="1.00" waitingCount="1" stopTime="0.00" timeLoss="47.03" rerouteNo="0" devices="tripinfo_carIn93435:1 routing_carIn93435:1" vType="default_001" speedFactor="0.97" vaporized=""/>
    <tripinfo id="carIn118759:1" depart="122.00" departLane="-139516077#0_0" departPos="0.00" departSpeed="0.00" departDelay="0.00" arrival="328.00" arrivalLane="320733908_1" arrivalPos="78.95" arrivalSpeed="1.06" duration="206.00" routeLength="3071.40" waitingTime="0.00" waitingCount="0" stopTime="0.00" timeLoss="35.45" rerouteNo="1" devices="tripinfo_carIn118759:1 routing_carIn118759:1" vType="default_001" speedFactor="0.99" vaporized=""/>
</tripinfos>
